# vtk DataFile Version 2.0
Octree Structure
ASCII

DATASET UNSTRUCTURED_GRID
POINTS 65 float
0.0 0.0 0.0
0.125 0.0 0.0
0.125 0.125 0.0
0.0 0.125 0.0
0.0 0.0 0.125
0.125 0.0 0.125
0.125 0.125 0.125
0.0 0.125 0.125
0.25 0.0 0.0
0.25 0.125 0.0
0.25 0.0 0.125
0.25 0.125 0.125
0.25 0.25 0.0
0.125 0.25 0.0
0.25 0.25 0.125
0.125 0.25 0.125
0.0 0.25 0.0
0.0 0.25 0.125
0.0 0.0 0.25
0.125 0.0 0.25
0.125 0.125 0.25
0.0 0.125 0.25
0.25 0.0 0.25
0.25 0.125 0.25
0.25 0.25 0.25
0.125 0.25 0.25
0.0 0.25 0.25
0.5 0.0 0.0
0.5 0.25 0.0
0.5 0.0 0.25
0.5 0.25 0.25
0.5 0.5 0.0
0.25 0.5 0.0
0.5 0.5 0.25
0.25 0.5 0.25
0.0 0.5 0.0
0.0 0.5 0.25
0.0 0.0 0.5
0.25 0.0 0.5
0.25 0.25 0.5
0.0 0.25 0.5
0.5 0.0 0.5
0.5 0.25 0.5
0.5 0.5 0.5
0.25 0.5 0.5
0.0 0.5 0.5
1.0 0.0 0.0
1.0 0.5 0.0
1.0 0.0 0.5
1.0 0.5 0.5
1.0 1.0 0.0
0.5 1.0 0.0
1.0 1.0 0.5
0.5 1.0 0.5
0.0 1.0 0.0
0.0 1.0 0.5
0.0 0.0 1.0
0.5 0.0 1.0
0.5 0.5 1.0
0.0 0.5 1.0
1.0 0.0 1.0
1.0 0.5 1.0
1.0 1.0 1.0
0.5 1.0 1.0
0.0 1.0 1.0

CELLS 22 198
8 0 1 2 3 4 5 6 7 
8 1 8 9 2 5 10 11 6 
8 2 9 12 13 6 11 14 15 
8 3 2 13 16 7 6 15 17 
8 4 5 6 7 18 19 20 21 
8 5 10 11 6 19 22 23 20 
8 6 11 14 15 20 23 24 25 
8 7 6 15 17 21 20 25 26 
8 8 27 28 12 22 29 30 24 
8 12 28 31 32 24 30 33 34 
8 16 12 32 35 26 24 34 36 
8 18 22 24 26 37 38 39 40 
8 22 29 30 24 38 41 42 39 
8 24 30 33 34 39 42 43 44 
8 26 24 34 36 40 39 44 45 
8 27 46 47 31 41 48 49 43 
8 31 47 50 51 43 49 52 53 
8 35 31 51 54 45 43 53 55 
8 37 41 43 45 56 57 58 59 
8 41 48 49 43 57 60 61 58 
8 43 49 52 53 58 61 62 63 
8 45 43 53 55 59 58 63 64 

CELL_TYPES 22
11
11
11
11
11
11
11
11
11
11
11
11
11
11
11
11
11
11
11
11
11
11

CELL_DATA 22
SCALARS treedepth double
LOOKUP_TABLE default
3
3
3
3
3
3
3
3
2
2
2
2
2
2
2
1
1
1
1
1
1
1
